/*--------------------------------*- C++ -*----------------------------------*\
| =========                 |                                                 |
| \\      /  F ield         | OpenFOAM: The Open Source CFD Toolbox           |
|  \\    /   O peration     | Version:  2.1.x                                 |
|   \\  /    A nd           | Web:      www.OpenFOAM.org                      |
|    \\/     M anipulation  |                                                 |
\*---------------------------------------------------------------------------*/
FoamFile
{
    version     2.0;
    format      ({[[FieldFormat]]});
    class       ({[[FieldClass]]});
    location    "({[[FieldLocation]]})";
    object      ({[[FieldObject]]});
}
// * * * * * * * * * * * * * * * * * * * * * * * * * * * * * * * * * * * * * //

dimensions      [({[[Mass]]}) ({[[Length]]}) ({[[Time]]}) ({[[Temperature]]}) ({[[Quantity]]}) ({[[Current]]}) ({[[LuminousIntensity]]})];

internalField   ({[[InternalFieldType]]}) ({[[InternalFieldValue]]});

boundaryField
{
({[[BoundaryPatches]]})
}

// ************************************************************************* //
