/*--------------------------------*- C++ -*----------------------------------*\
| =========                 |                                                 |
| \\      /  F ield         | OpenFOAM: The Open Source CFD Toolbox           |
|  \\    /   O peration     | Version:  2.1.1                                 |
|   \\  /    A nd           | Web:      www.OpenFOAM.org                      |
|    \\/     M anipulation  |                                                 |
\*---------------------------------------------------------------------------*/
FoamFile
{
    version     2.0;
    format      ascii;
    class       volScalarField;
    location    "0";
    object      k;
}
// * * * * * * * * * * * * * * * * * * * * * * * * * * * * * * * * * * * * * //

dimensions      [0 2 -2 0 0 0 0];

internalField   uniform ({[[internalField]]});

boundaryField
{
    bottom
    {
        type            ({[[bottomType]]});
        value           uniform ({[[bottomValue]]});
    }
    top
    {
        type            ({[[topType]]});
        value           uniform ({[[topValue]]});
    }
    west
    {
        type            ({[[westType]]});
        value           uniform ({[[westValue]]});
    }
    east
    {
        type            zeroGradient;
    }
    north
    {
        type            zeroGradient;
    }
    south
    {
        type            ({[[southType]]});
        value           uniform ({[[southValue]]});
    }
}


// ************************************************************************* //
